ITEM: TIMESTEP
0
ITEM: NUMBER OF ATOMS
72000
ITEM: BOX BOUNDS pp pp ff
-1.4299999999999999e+00 1.6897999999999999e+02
0.0000000000000000e+00 1.4757072880486899e+02
-3.5000000000000000e+01 1.0000000000000000e+02
ITEM: ATOMS id x y z 
1 -0.71 0 1.275 
5 0.355 0.614878 1.275 
6 0.355 1.84463 1.275 
7 1.42 1.22976 1.275 
8 2.485 0.614878 1.275 
9 2.485 1.84463 1.275 
10 3.55 0 1.275 
17 4.615 0.614878 1.275 
18 4.615 1.84463 1.275 
481 -0.71 2.45951 1.275 
485 0.355 3.07439 1.275 
486 0.355 4.30415 1.275 
487 1.42 3.68927 1.275 
488 2.485 3.07439 1.275 
489 2.485 4.30415 1.275 
490 3.55 2.45951 1.275 
497 4.615 3.07439 1.275 
498 4.615 4.30415 1.275 
961 -0.71 4.91902 1.275 
965 0.355 5.5339 1.275 
967 1.42 6.14878 1.275 
968 2.485 5.5339 1.275 
970 3.55 4.91902 1.275 
977 4.615 5.5339 1.275 
19 5.68 1.22976 1.275 
20 6.745 0.614878 1.275 
21 6.745 1.84463 1.275 
22 7.81 0 1.275 
29 8.875 0.614878 1.275 
30 8.875 1.84463 1.275 
31 9.94 1.22976 1.275 
499 5.68 3.68927 1.275 
500 6.745 3.07439 1.275 
501 6.745 4.30415 1.275 
502 7.81 2.45951 1.275 
509 8.875 3.07439 1.275 
510 8.875 4.30415 1.275 
511 9.94 3.68927 1.275 
979 5.68 6.14878 1.275 
980 6.745 5.5339 1.275 
982 7.81 4.91902 1.275 
989 8.875 5.5339 1.275 
991 9.94 6.14878 1.275 
32 11.005 0.614878 1.275 
33 11.005 1.84463 1.275 
34 12.07 0 1.275 
41 13.135 0.614878 1.275 
42 13.135 1.84463 1.275 
43 14.2 1.22976 1.275 
44 15.265 0.614878 1.275 
45 15.265 1.84463 1.275 
46 16.33 0 1.275 
512 11.005 3.07439 1.275 
513 11.005 4.30415 1.275 
514 12.07 2.45951 1.275 
521 13.135 3.07439 1.275 
522 13.135 4.30415 1.275 
523 14.2 3.68927 1.275 
524 15.265 3.07439 1.275 
525 15.265 4.30415 1.275 
526 16.33 2.45951 1.275 
992 11.005 5.5339 1.275 
994 12.07 4.91902 1.275 
1001 13.135 5.5339 1.275 
1003 14.2 6.14878 1.275 
1004 15.265 5.5339 1.275 
1006 16.33 4.91902 1.275 
53 17.395 0.614878 1.275 
54 17.395 1.84463 1.275 
55 18.46 1.22976 1.275 
56 19.525 0.614878 1.275 
57 19.525 1.84463 1.275 
58 20.59 0 1.275 
65 21.655 0.614878 1.275 
66 21.655 1.84463 1.275 
67 22.72 1.22976 1.275 
533 17.395 3.07439 1.275 
534 17.395 4.30415 1.275 
535 18.46 3.68927 1.275 
536 19.525 3.07439 1.275 
537 19.525 4.30415 1.275 
538 20.59 2.45951 1.275 
545 21.655 3.07439 1.275 
546 21.655 4.30415 1.275 
547 22.72 3.68927 1.275 
1013 17.395 5.5339 1.275 
1015 18.46 6.14878 1.275 
1016 19.525 5.5339 1.275 
1018 20.59 4.91902 1.275 
1025 21.655 5.5339 1.275 
1027 22.72 6.14878 1.275 
68 23.785 0.614878 1.275 
69 23.785 1.84463 1.275 
70 24.85 0 1.275 
77 25.915 0.614878 1.275 
78 25.915 1.84463 1.275 
79 26.98 1.22976 1.275 
80 28.045 0.614878 1.275 
81 28.045 1.84463 1.275 
548 23.785 3.07439 1.275 
549 23.785 4.30415 1.275 
550 24.85 2.45951 1.275 
557 25.915 3.07439 1.275 
558 25.915 4.30415 1.275 
559 26.98 3.68927 1.275 
560 28.045 3.07439 1.275 
561 28.045 4.30415 1.275 
1028 23.785 5.5339 1.275 
1030 24.85 4.91902 1.275 
1037 25.915 5.5339 1.275 
1039 26.98 6.14878 1.275 
1040 28.045 5.5339 1.275 
82 29.11 0 1.275 
89 30.175 0.614878 1.275 
90 30.175 1.84463 1.275 
91 31.24 1.22976 1.275 
92 32.305 0.614878 1.275 
93 32.305 1.84463 1.275 
94 33.37 0 1.275 
101 34.435 0.614878 1.275 
102 34.435 1.84463 1.275 
562 29.11 2.45951 1.275 
569 30.175 3.07439 1.275 
570 30.175 4.30415 1.275 
571 31.24 3.68927 1.275 
572 32.305 3.07439 1.275 
573 32.305 4.30415 1.275 
574 33.37 2.45951 1.275 
581 34.435 3.07439 1.275 
582 34.435 4.30415 1.275 
1042 29.11 4.91902 1.275 
1049 30.175 5.5339 1.275 
1051 31.24 6.14878 1.275 
1052 32.305 5.5339 1.275 
1054 33.37 4.91902 1.275 
1061 34.435 5.5339 1.275 
103 35.5 1.22976 1.275 
104 36.565 0.614878 1.275 
105 36.565 1.84463 1.275 
106 37.63 0 1.275 
113 38.695 0.614878 1.275 
114 38.695 1.84463 1.275 
115 39.76 1.22976 1.275 
116 40.825 0.614878 1.275 
117 40.825 1.84463 1.275 
583 35.5 3.68927 1.275 
584 36.565 3.07439 1.275 
585 36.565 4.30415 1.275 
586 37.63 2.45951 1.275 
593 38.695 3.07439 1.275 
594 38.695 4.30415 1.275 
595 39.76 3.68927 1.275 
596 40.825 3.07439 1.275 
597 40.825 4.30415 1.275 
1063 35.5 6.14878 1.275 
1064 36.565 5.5339 1.275 
1066 37.63 4.91902 1.275 
1073 38.695 5.5339 1.275 
1075 39.76 6.14878 1.275 
1076 40.825 5.5339 1.275 
118 41.89 0 1.275 
125 42.955 0.614878 1.275 
126 42.955 1.84463 1.275 
127 44.02 1.22976 1.275 
128 45.085 0.614878 1.275 
129 45.085 1.84463 1.275 
130 46.15 0 1.275 
137 47.215 0.614878 1.275 
138 47.215 1.84463 1.275 
598 41.89 2.45951 1.275 
605 42.955 3.07439 1.275 
606 42.955 4.30415 1.275 
607 44.02 3.68927 1.275 
608 45.085 3.07439 1.275 
609 45.085 4.30415 1.275 
610 46.15 2.45951 1.275 
617 47.215 3.07439 1.275 
618 47.215 4.30415 1.275 
1078 41.89 4.91902 1.275 
1085 42.955 5.5339 1.275 
1087 44.02 6.14878 1.275 
1088 45.085 5.5339 1.275 
1090 46.15 4.91902 1.275 
1097 47.215 5.5339 1.275 
139 48.28 1.22976 1.275 
140 49.345 0.614878 1.275 
141 49.345 1.84463 1.275 
142 50.41 0 1.275 
149 51.475 0.614878 1.275 
150 51.475 1.84463 1.275 
151 52.54 1.22976 1.275 
619 48.28 3.68927 1.275 
620 49.345 3.07439 1.275 
621 49.345 4.30415 1.275 
622 50.41 2.45951 1.275 
629 51.475 3.07439 1.275 
630 51.475 4.30415 1.275 
631 52.54 3.68927 1.275 
1099 48.28 6.14878 1.275 
1100 49.345 5.5339 1.275 
1102 50.41 4.91902 1.275 
1109 51.475 5.5339 1.275 
1111 52.54 6.14878 1.275 
152 53.605 0.614878 1.275 
153 53.605 1.84463 1.275 
154 54.67 0 1.275 
161 55.735 0.614878 1.275 
162 55.735 1.84463 1.275 
163 56.8 1.22976 1.275 
164 57.865 0.614878 1.275 
165 57.865 1.84463 1.275 
166 58.93 0 1.275 
632 53.605 3.07439 1.275 
633 53.605 4.30415 1.275 
634 54.67 2.45951 1.275 
641 55.735 3.07439 1.275 
642 55.735 4.30415 1.275 
643 56.8 3.68927 1.275 
644 57.865 3.07439 1.275 
645 57.865 4.30415 1.275 
646 58.93 2.45951 1.275 
1112 53.605 5.5339 1.275 
1114 54.67 4.91902 1.275 
1121 55.735 5.5339 1.275 
1123 56.8 6.14878 1.275 
1124 57.865 5.5339 1.275 
1126 58.93 4.91902 1.275 
173 59.995 0.614878 1.275 
174 59.995 1.84463 1.275 
175 61.06 1.22976 1.275 
176 62.125 0.614878 1.275 
177 62.125 1.84463 1.275 
178 63.19 0 1.275 
185 64.255 0.614878 1.275 
186 64.255 1.84463 1.275 
187 65.32 1.22976 1.275 
653 59.995 3.07439 1.275 
654 59.995 4.30415 1.275 
655 61.06 3.68927 1.275 
656 62.125 3.07439 1.275 
657 62.125 4.30415 1.275 
658 63.19 2.45951 1.275 
665 64.255 3.07439 1.275 
666 64.255 4.30415 1.275 
667 65.32 3.68927 1.275 
1133 59.995 5.5339 1.275 
1135 61.06 6.14878 1.275 
1136 62.125 5.5339 1.275 
1138 63.19 4.91902 1.275 
1145 64.255 5.5339 1.275 
1147 65.32 6.14878 1.275 
188 66.385 0.614878 1.275 
189 66.385 1.84463 1.275 
190 67.45 0 1.275 
197 68.515 0.614878 1.275 
198 68.515 1.84463 1.275 
199 69.58 1.22976 1.275 
200 70.645 0.614878 1.275 
201 70.645 1.84463 1.275 
668 66.385 3.07439 1.275 
669 66.385 4.30415 1.275 
670 67.45 2.45951 1.275 
677 68.515 3.07439 1.275 
678 68.515 4.30415 1.275 
679 69.58 3.68927 1.275 
680 70.645 3.07439 1.275 
681 70.645 4.30415 1.275 
1148 66.385 5.5339 1.275 
1150 67.45 4.91902 1.275 
1157 68.515 5.5339 1.275 
1159 69.58 6.14878 1.275 
1160 70.645 5.5339 1.275 
202 71.71 0 1.275 
209 72.775 0.614878 1.275 
210 72.775 1.84463 1.275 
211 73.84 1.22976 1.275 
212 74.905 0.614878 1.275 
213 74.905 1.84463 1.275 
214 75.97 0 1.275 
221 77.035 0.614878 1.275 
222 77.035 1.84463 1.275 
682 71.71 2.45951 1.275 
689 72.775 3.07439 1.275 
690 72.775 4.30415 1.275 
691 73.84 3.68927 1.275 
692 74.905 3.07439 1.275 
693 74.905 4.30415 1.275 
694 75.97 2.45951 1.275 
701 77.035 3.07439 1.275 
702 77.035 4.30415 1.275 
1162 71.71 4.91902 1.275 
1169 72.775 5.5339 1.275 
1171 73.84 6.14878 1.275 
1172 74.905 5.5339 1.275 
1174 75.97 4.91902 1.275 
1181 77.035 5.5339 1.275 
223 78.1 1.22976 1.275 
224 79.165 0.614878 1.275 
225 79.165 1.84463 1.275 
226 80.23 0 1.275 
233 81.295 0.614878 1.275 
234 81.295 1.84463 1.275 
235 82.36 1.22976 1.275 
236 83.425 0.614878 1.275 
237 83.425 1.84463 1.275 
703 78.1 3.68927 1.275 
704 79.165 3.07439 1.275 
705 79.165 4.30415 1.275 
706 80.23 2.45951 1.275 
713 81.295 3.07439 1.275 
714 81.295 4.30415 1.275 
715 82.36 3.68927 1.275 
716 83.425 3.07439 1.275 
717 83.425 4.30415 1.275 
1183 78.1 6.14878 1.275 
1184 79.165 5.5339 1.275 
1186 80.23 4.91902 1.275 
1193 81.295 5.5339 1.275 
1195 82.36 6.14878 1.275 
1196 83.425 5.5339 1.275 
238 84.49 0 1.275 
245 85.555 0.614878 1.275 
246 85.555 1.84463 1.275 
247 86.62 1.22976 1.275 
248 87.685 0.614878 1.275 
249 87.685 1.84463 1.275 
250 88.75 0 1.275 
257 89.815 0.614878 1.275 
258 89.815 1.84463 1.275 
718 84.49 2.45951 1.275 
725 85.555 3.07439 1.275 
726 85.555 4.30415 1.275 
727 86.62 3.68927 1.275 
728 87.685 3.07439 1.275 
729 87.685 4.30415 1.275 
730 88.75 2.45951 1.275 
737 89.815 3.07439 1.275 
738 89.815 4.30415 1.275 
1198 84.49 4.91902 1.275 
1205 85.555 5.5339 1.275 
1207 86.62 6.14878 1.275 
1208 87.685 5.5339 1.275 
1210 88.75 4.91902 1.275 
1217 89.815 5.5339 1.275 
259 90.88 1.22976 1.275 
260 91.945 0.614878 1.275 
261 91.945 1.84463 1.275 
262 93.01 0 1.275 
269 94.075 0.614878 1.275 
270 94.075 1.84463 1.275 
271 95.14 1.22976 1.275 
739 90.88 3.68927 1.275 
740 91.945 3.07439 1.275 
741 91.945 4.30415 1.275 
742 93.01 2.45951 1.275 
749 94.075 3.07439 1.275 
750 94.075 4.30415 1.275 
751 95.14 3.68927 1.275 
1219 90.88 6.14878 1.275 
1220 91.945 5.5339 1.275 
1222 93.01 4.91902 1.275 
1229 94.075 5.5339 1.275 
1231 95.14 6.14878 1.275 
272 96.205 0.614878 1.275 
273 96.205 1.84463 1.275 
274 97.27 0 1.275 
281 98.335 0.614878 1.275 
282 98.335 1.84463 1.275 
283 99.4 1.22976 1.275 
284 100.465 0.614878 1.275 
285 100.465 1.84463 1.275 
286 101.53 0 1.275 
752 96.205 3.07439 1.275 
753 96.205 4.30415 1.275 
754 97.27 2.45951 1.275 
761 98.335 3.07439 1.275 
762 98.335 4.30415 1.275 
763 99.4 3.68927 1.275 
764 100.465 3.07439 1.275 
765 100.465 4.30415 1.275 
766 101.53 2.45951 1.275 
1232 96.205 5.5339 1.275 
1234 97.27 4.91902 1.275 
1241 98.335 5.5339 1.275 
1243 99.4 6.14878 1.275 
1244 100.465 5.5339 1.275 
1246 101.53 4.91902 1.275 
293 102.595 0.614878 1.275 
294 102.595 1.84463 1.275 
295 103.66 1.22976 1.275 
296 104.725 0.614878 1.275 
297 104.725 1.84463 1.275 
298 105.79 0 1.275 
305 106.855 0.614878 1.275 
306 106.855 1.84463 1.275 
307 107.92 1.22976 1.275 
773 102.595 3.07439 1.275 
774 102.595 4.30415 1.275 
775 103.66 3.68927 1.275 
776 104.725 3.07439 1.275 
777 104.725 4.30415 1.275 
778 105.79 2.45951 1.275 
785 106.855 3.07439 1.275 
786 106.855 4.30415 1.275 
787 107.92 3.68927 1.275 
1253 102.595 5.5339 1.275 
1255 103.66 6.14878 1.275 
1256 104.725 5.5339 1.275 
1258 105.79 4.91902 1.275 
1265 106.855 5.5339 1.275 
1267 107.92 6.14878 1.275 
308 108.985 0.614878 1.275 
309 108.985 1.84463 1.275 
310 110.05 0 1.275 
317 111.115 0.614878 1.275 
318 111.115 1.84463 1.275 
319 112.18 1.22976 1.275 
320 113.245 0.614878 1.275 
321 113.245 1.84463 1.275 
788 108.985 3.07439 1.275 
789 108.985 4.30415 1.275 
790 110.05 2.45951 1.275 
797 111.115 3.07439 1.275 
798 111.115 4.30415 1.275 
799 112.18 3.68927 1.275 
800 113.245 3.07439 1.275 
801 113.245 4.30415 1.275 
1268 108.985 5.5339 1.275 
1270 110.05 4.91902 1.275 
1277 111.115 5.5339 1.275 
1279 112.18 6.14878 1.275 
1280 113.245 5.5339 1.275 
322 114.31 0 1.275 
329 115.375 0.614878 1.275 
330 115.375 1.84463 1.275 
331 116.44 1.22976 1.275 
332 117.505 0.614878 1.275 
333 117.505 1.84463 1.275 
334 118.57 0 1.275 
341 119.635 0.614878 1.275 
342 119.635 1.84463 1.275 
802 114.31 2.45951 1.275 
809 115.375 3.07439 1.275 
810 115.375 4.30415 1.275 
811 116.44 3.68927 1.275 
812 117.505 3.07439 1.275 
813 117.505 4.30415 1.275 
814 118.57 2.45951 1.275 
821 119.635 3.07439 1.275 
822 119.635 4.30415 1.275 
1282 114.31 4.91902 1.275 
1289 115.375 5.5339 1.275 
1291 116.44 6.14878 1.275 
1292 117.505 5.5339 1.275 
1294 118.57 4.91902 1.275 
1301 119.635 5.5339 1.275 
343 120.7 1.22976 1.275 
344 121.765 0.614878 1.275 
345 121.765 1.84463 1.275 
346 122.83 0 1.275 
353 123.895 0.614878 1.275 
354 123.895 1.84463 1.275 
355 124.96 1.22976 1.275 
356 126.025 0.614878 1.275 
357 126.025 1.84463 1.275 
823 120.7 3.68927 1.275 
824 121.765 3.07439 1.275 
825 121.765 4.30415 1.275 
826 122.83 2.45951 1.275 
833 123.895 3.07439 1.275 
834 123.895 4.30415 1.275 
835 124.96 3.68927 1.275 
836 126.025 3.07439 1.275 
837 126.025 4.30415 1.275 
1303 120.7 6.14878 1.275 
1304 121.765 5.5339 1.275 
1306 122.83 4.91902 1.275 
1313 123.895 5.5339 1.275 
1315 124.96 6.14878 1.275 
1316 126.025 5.5339 1.275 
358 127.09 0 1.275 
365 128.155 0.614878 1.275 
366 128.155 1.84463 1.275 
367 129.22 1.22976 1.275 
368 130.285 0.614878 1.275 
369 130.285 1.84463 1.275 
370 131.35 0 1.275 
377 132.415 0.614878 1.275 
378 132.415 1.84463 1.275 
838 127.09 2.45951 1.275 
845 128.155 3.07439 1.275 
846 128.155 4.30415 1.275 
847 129.22 3.68927 1.275 
848 130.285 3.07439 1.275 
849 130.285 4.30415 1.275 
850 131.35 2.45951 1.275 
857 132.415 3.07439 1.275 
858 132.415 4.30415 1.275 
1318 127.09 4.91902 1.275 
1325 128.155 5.5339 1.275 
1327 129.22 6.14878 1.275 
1328 130.285 5.5339 1.275 
1330 131.35 4.91902 1.275 
1337 132.415 5.5339 1.275 
379 133.48 1.22976 1.275 
380 134.545 0.614878 1.275 
381 134.545 1.84463 1.275 
382 135.61 0 1.275 
389 136.675 0.614878 1.275 
390 136.675 1.84463 1.275 
391 137.74 1.22976 1.275 
859 133.48 3.68927 1.275 
860 134.545 3.07439 1.275 
861 134.545 4.30415 1.275 
862 135.61 2.45951 1.275 
869 136.675 3.07439 1.275 
870 136.675 4.30415 1.275 
871 137.74 3.68927 1.275 
1339 133.48 6.14878 1.275 
1340 134.545 5.5339 1.275 
1342 135.61 4.91902 1.275 
1349 136.675 5.5339 1.275 
1351 137.74 6.14878 1.275 
392 138.805 0.614878 1.275 
393 138.805 1.84463 1.275 
394 139.87 0 1.275 
401 140.935 0.614878 1.275 
402 140.935 1.84463 1.275 
403 142 1.22976 1.275 
404 143.065 0.614878 1.275 
405 143.065 1.84463 1.275 
406 144.13 0 1.275 
872 138.805 3.07439 1.275 
873 138.805 4.30415 1.275 
874 139.87 2.45951 1.275 
881 140.935 3.07439 1.275 
882 140.935 4.30415 1.275 
883 142 3.68927 1.275 
884 143.065 3.07439 1.275 
885 143.065 4.30415 1.275 
886 144.13 2.45951 1.275 
1352 138.805 5.5339 1.275 
1354 139.87 4.91902 1.275 
1361 140.935 5.5339 1.275 
1363 142 6.14878 1.275 
1364 143.065 5.5339 1.275 
1366 144.13 4.91902 1.275 
413 145.195 0.614878 1.275 
414 145.195 1.84463 1.275 
415 146.26 1.22976 1.275 
416 147.325 0.614878 1.275 
417 147.325 1.84463 1.275 
418 148.39 0 1.275 
425 149.455 0.614878 1.275 
426 149.455 1.84463 1.275 
427 150.52 1.22976 1.275 
893 145.195 3.07439 1.275 
894 145.195 4.30415 1.275 
895 146.26 3.68927 1.275 
896 147.325 3.07439 1.275 
897 147.325 4.30415 1.275 
898 148.39 2.45951 1.275 
905 149.455 3.07439 1.275 
906 149.455 4.30415 1.275 
907 150.52 3.68927 1.275 
1373 145.195 5.5339 1.275 
1375 146.26 6.14878 1.275 
1376 147.325 5.5339 1.275 
1378 148.39 4.91902 1.275 
1385 149.455 5.5339 1.275 
1387 150.52 6.14878 1.275 
428 151.585 0.614878 1.275 
429 151.585 1.84463 1.275 
430 152.65 0 1.275 
437 153.715 0.614878 1.275 
438 153.715 1.84463 1.275 
439 154.78 1.22976 1.275 
440 155.845 0.614878 1.275 
441 155.845 1.84463 1.275 
908 151.585 3.07439 1.275 
909 151.585 4.30415 1.275 
910 152.65 2.45951 1.275 
917 153.715 3.07439 1.275 
918 153.715 4.30415 1.275 
919 154.78 3.68927 1.275 
920 155.845 3.07439 1.275 
921 155.845 4.30415 1.275 
1388 151.585 5.5339 1.275 
1390 152.65 4.91902 1.275 
1397 153.715 5.5339 1.275 
1399 154.78 6.14878 1.275 
1400 155.845 5.5339 1.275 
442 156.91 0 1.275 
449 157.975 0.614878 1.275 
450 157.975 1.84463 1.275 
451 159.04 1.22976 1.275 
452 160.105 0.614878 1.275 
453 160.105 1.84463 1.275 
454 161.17 0 1.275 
461 162.235 0.614878 1.275 
462 162.235 1.84463 1.275 
922 156.91 2.45951 1.275 
929 157.975 3.07439 1.275 
930 157.975 4.30415 1.275 
931 159.04 3.68927 1.275 
932 160.105 3.07439 1.275 
933 160.105 4.30415 1.275 
934 161.17 2.45951 1.275 
941 162.235 3.07439 1.275 
942 162.235 4.30415 1.275 
1402 156.91 4.91902 1.275 
1409 157.975 5.5339 1.275 
1411 159.04 6.14878 1.275 
1412 160.105 5.5339 1.275 
1414 161.17 4.91902 1.275 
1421 162.235 5.5339 1.275 
463 163.3 1.22976 1.275 
464 164.365 0.614878 1.275 
465 164.365 1.84463 1.275 
466 165.43 0 1.275 
473 166.495 0.614878 1.275 
474 166.495 1.84463 1.275 
475 167.56 1.22976 1.275 
476 168.625 0.614878 1.275 
477 168.625 1.84463 1.275 
943 163.3 3.68927 1.275 
944 164.365 3.07439 1.275 
945 164.365 4.30415 1.275 
946 165.43 2.45951 1.275 
953 166.495 3.07439 1.275 
954 166.495 4.30415 1.275 
955 167.56 3.68927 1.275 
956 168.625 3.07439 1.275 
957 168.625 4.30415 1.275 
1423 163.3 6.14878 1.275 
1424 164.365 5.5339 1.275 
1426 165.43 4.91902 1.275 
1433 166.495 5.5339 1.275 
1435 167.56 6.14878 1.275 
1436 168.625 5.5339 1.275 
966 0.355 6.76366 1.275 
969 2.485 6.76366 1.275 
978 4.615 6.76366 1.275 
1441 -0.71 7.37854 1.275 
1445 0.355 7.99341 1.275 
1446 0.355 9.22317 1.275 
1447 1.42 8.60829 1.275 
1448 2.485 7.99341 1.275 
1449 2.485 9.22317 1.275 
1450 3.55 7.37854 1.275 
1457 4.615 7.99341 1.275 
1458 4.615 9.22317 1.275 
1921 -0.71 9.83805 1.275 
1925 0.355 10.4529 1.275 
1926 0.355 11.6827 1.275 
1927 1.42 11.0678 1.275 
1928 2.485 10.4529 1.275 
1929 2.485 11.6827 1.275 
1930 3.55 9.83805 1.275 
1937 4.615 10.4529 1.275 
1938 4.615 11.6827 1.275 
2401 -0.71 12.2976 1.275 
2410 3.55 12.2976 1.275 
981 6.745 6.76366 1.275 
990 8.875 6.76366 1.275 
1459 5.68 8.60829 1.275 
1460 6.745 7.99341 1.275 
1461 6.745 9.22317 1.275 
1462 7.81 7.37854 1.275 
1469 8.875 7.99341 1.275 
1470 8.875 9.22317 1.275 
1471 9.94 8.60829 1.275 
1939 5.68 11.0678 1.275 
1940 6.745 10.4529 1.275 
1941 6.745 11.6827 1.275 
1942 7.81 9.83805 1.275 
1949 8.875 10.4529 1.275 
1950 8.875 11.6827 1.275 
1951 9.94 11.0678 1.275 
2422 7.81 12.2976 1.275 
993 11.005 6.76366 1.275 
1002 13.135 6.76366 1.275 
1005 15.265 6.76366 1.275 
1472 11.005 7.99341 1.275 
1473 11.005 9.22317 1.275 
1474 12.07 7.37854 1.275 
1481 13.135 7.99341 1.275 
1482 13.135 9.22317 1.275 
1483 14.2 8.60829 1.275 
1484 15.265 7.99341 1.275 
1485 15.265 9.22317 1.275 
1486 16.33 7.37854 1.275 
1952 11.005 10.4529 1.275 
1953 11.005 11.6827 1.275 
1954 12.07 9.83805 1.275 
1961 13.135 10.4529 1.275 
1962 13.135 11.6827 1.275 
1963 14.2 11.0678 1.275 
1964 15.265 10.4529 1.275 
1965 15.265 11.6827 1.275 
1966 16.33 9.83805 1.275 
2434 12.07 12.2976 1.275 
2446 16.33 12.2976 1.275 
1014 17.395 6.76366 1.275 
1017 19.525 6.76366 1.275 
1026 21.655 6.76366 1.275 
1493 17.395 7.99341 1.275 
1494 17.395 9.22317 1.275 
1495 18.46 8.60829 1.275 
1496 19.525 7.99341 1.275 
1497 19.525 9.22317 1.275 
1498 20.59 7.37854 1.275 
1505 21.655 7.99341 1.275 
1506 21.655 9.22317 1.275 
1507 22.72 8.60829 1.275 
1973 17.395 10.4529 1.275 
1974 17.395 11.6827 1.275 
1975 18.46 11.0678 1.275 
1976 19.525 10.4529 1.275 
1977 19.525 11.6827 1.275 
1978 20.59 9.83805 1.275 
1985 21.655 10.4529 1.275 
1986 21.655 11.6827 1.275 
1987 22.72 11.0678 1.275 
2458 20.59 12.2976 1.275 
1029 23.785 6.76366 1.275 
1038 25.915 6.76366 1.275 
1041 28.045 6.76366 1.275 
1508 23.785 7.99341 1.275 
1509 23.785 9.22317 1.275 
1510 24.85 7.37854 1.275 
1517 25.915 7.99341 1.275 
1518 25.915 9.22317 1.275 
1519 26.98 8.60829 1.275 
1520 28.045 7.99341 1.275 
1521 28.045 9.22317 1.275 
1988 23.785 10.4529 1.275 
1989 23.785 11.6827 1.275 
1990 24.85 9.83805 1.275 
1997 25.915 10.4529 1.275 
1998 25.915 11.6827 1.275 
1999 26.98 11.0678 1.275 
2000 28.045 10.4529 1.275 
2001 28.045 11.6827 1.275 
2470 24.85 12.2976 1.275 
1050 30.175 6.76366 1.275 
1053 32.305 6.76366 1.275 
1062 34.435 6.76366 1.275 
1522 29.11 7.37854 1.275 
1529 30.175 7.99341 1.275 
1530 30.175 9.22317 1.275 
1531 31.24 8.60829 1.275 
1532 32.305 7.99341 1.275 
1533 32.305 9.22317 1.275 
1534 33.37 7.37854 1.275 
1541 34.435 7.99341 1.275 
1542 34.435 9.22317 1.275 
2002 29.11 9.83805 1.275 
2009 30.175 10.4529 1.275 
2010 30.175 11.6827 1.275 
2011 31.24 11.0678 1.275 
2012 32.305 10.4529 1.275 
2013 32.305 11.6827 1.275 
2014 33.37 9.83805 1.275 
2021 34.435 10.4529 1.275 
2022 34.435 11.6827 1.275 
2482 29.11 12.2976 1.275 
2494 33.37 12.2976 1.275 
1065 36.565 6.76366 1.275 
1074 38.695 6.76366 1.275 
1077 40.825 6.76366 1.275 
1543 35.5 8.60829 1.275 
1544 36.565 7.99341 1.275 
1545 36.565 9.22317 1.275 
1546 37.63 7.37854 1.275 
1553 38.695 7.99341 1.275 
1554 38.695 9.22317 1.275 
1555 39.76 8.60829 1.275 
1556 40.825 7.99341 1.275 
1557 40.825 9.22317 1.275 
2023 35.5 11.0678 1.275 
2024 36.565 10.4529 1.275 
2025 36.565 11.6827 1.275 
2026 37.63 9.83805 1.275 
2033 38.695 10.4529 1.275 
2034 38.695 11.6827 1.275 
2035 39.76 11.0678 1.275 
2036 40.825 10.4529 1.275 
2037 40.825 11.6827 1.275 
2506 37.63 12.2976 1.275 
1086 42.955 6.76366 1.275 
1089 45.085 6.76366 1.275 
1098 47.215 6.76366 1.275 
1558 41.89 7.37854 1.275 
1565 42.955 7.99341 1.275 
1566 42.955 9.22317 1.275 
1567 44.02 8.60829 1.275 
1568 45.085 7.99341 1.275 
1569 45.085 9.22317 1.275 
1570 46.15 7.37854 1.275 
1577 47.215 7.99341 1.275 
1578 47.215 9.22317 1.275 
2038 41.89 9.83805 1.275 
2045 42.955 10.4529 1.275 
2046 42.955 11.6827 1.275 
2047 44.02 11.0678 1.275 
2048 45.085 10.4529 1.275 
2049 45.085 11.6827 1.275 
2050 46.15 9.83805 1.275 
2057 47.215 10.4529 1.275 
2058 47.215 11.6827 1.275 
2518 41.89 12.2976 1.275 
2530 46.15 12.2976 1.275 
1101 49.345 6.76366 1.275 
1110 51.475 6.76366 1.275 
1579 48.28 8.60829 1.275 
1580 49.345 7.99341 1.275 
1581 49.345 9.22317 1.275 
1582 50.41 7.37854 1.275 
1589 51.475 7.99341 1.275 
1590 51.475 9.22317 1.275 
1591 52.54 8.60829 1.275 
2059 48.28 11.0678 1.275 
2060 49.345 10.4529 1.275 
2061 49.345 11.6827 1.275 
2062 50.41 9.83805 1.275 
2069 51.475 10.4529 1.275 
2070 51.475 11.6827 1.275 
2071 52.54 11.0678 1.275 
2542 50.41 12.2976 1.275 
1113 53.605 6.76366 1.275 
1122 55.735 6.76366 1.275 
1125 57.865 6.76366 1.275 
1592 53.605 7.99341 1.275 
1593 53.605 9.22317 1.275 
1594 54.67 7.37854 1.275 
1601 55.735 7.99341 1.275 
1602 55.735 9.22317 1.275 
1603 56.8 8.60829 1.275 
1604 57.865 7.99341 1.275 
1605 57.865 9.22317 1.275 
1606 58.93 7.37854 1.275 
2072 53.605 10.4529 1.275 
2073 53.605 11.6827 1.275 
2074 54.67 9.83805 1.275 
2081 55.735 10.4529 1.275 
2082 55.735 11.6827 1.275 
2083 56.8 11.0678 1.275 
2084 57.865 10.4529 1.275 
2085 57.865 11.6827 1.275 
2086 58.93 9.83805 1.275 
2554 54.67 12.2976 1.275 
2566 58.93 12.2976 1.275 
1134 59.995 6.76366 1.275 
1137 62.125 6.76366 1.275 
1146 64.255 6.76366 1.275 
1613 59.995 7.99341 1.275 
1614 59.995 9.22317 1.275 
1615 61.06 8.60829 1.275 
1616 62.125 7.99341 1.275 
1617 62.125 9.22317 1.275 
1618 63.19 7.37854 1.275 
1625 64.255 7.99341 1.275 
1626 64.255 9.22317 1.275 
1627 65.32 8.60829 1.275 
2093 59.995 10.4529 1.275 
2094 59.995 11.6827 1.275 
2095 61.06 11.0678 1.275 
2096 62.125 10.4529 1.275 
2097 62.125 11.6827 1.275 
2098 63.19 9.83805 1.275 
2105 64.255 10.4529 1.275 
2106 64.255 11.6827 1.275 
2107 65.32 11.0678 1.275 
2578 63.19 12.2976 1.275 
1149 66.385 6.76366 1.275 
1158 68.515 6.76366 1.275 
1161 70.645 6.76366 1.275 
1628 66.385 7.99341 1.275 
1629 66.385 9.22317 1.275 
1630 67.45 7.37854 1.275 
1637 68.515 7.99341 1.275 
1638 68.515 9.22317 1.275 
1639 69.58 8.60829 1.275 
1640 70.645 7.99341 1.275 
1641 70.645 9.22317 1.275 
2108 66.385 10.4529 1.275 
2109 66.385 11.6827 1.275 
2110 67.45 9.83805 1.275 
2117 68.515 10.4529 1.275 
2118 68.515 11.6827 1.275 
2119 69.58 11.0678 1.275 
2120 70.645 10.4529 1.275 
2121 70.645 11.6827 1.275 
2590 67.45 12.2976 1.275 
1170 72.775 6.76366 1.275 
1173 74.905 6.76366 1.275 
1182 77.035 6.76366 1.275 
1642 71.71 7.37854 1.275 
1649 72.775 7.99341 1.275 
1650 72.775 9.22317 1.275 
1651 73.84 8.60829 1.275 
1652 74.905 7.99341 1.275 
1653 74.905 9.22317 1.275 
1654 75.97 7.37854 1.275 
1661 77.035 7.99341 1.275 
1662 77.035 9.22317 1.275 
2122 71.71 9.83805 1.275 
2129 72.775 10.4529 1.275 
2130 72.775 11.6827 1.275 
2131 73.84 11.0678 1.275 
2132 74.905 10.4529 1.275 
2133 74.905 11.6827 1.275 
2134 75.97 9.83805 1.275 
2141 77.035 10.4529 1.275 
2142 77.035 11.6827 1.275 
2602 71.71 12.2976 1.275 
2614 75.97 12.2976 1.275 
1185 79.165 6.76366 1.275 
1194 81.295 6.76366 1.275 
1197 83.425 6.76366 1.275 
1663 78.1 8.60829 1.275 
1664 79.165 7.99341 1.275 
1665 79.165 9.22317 1.275 
1666 80.23 7.37854 1.275 
1673 81.295 7.99341 1.275 
1674 81.295 9.22317 1.275 
1675 82.36 8.60829 1.275 
1676 83.425 7.99341 1.275 
1677 83.425 9.22317 1.275 
2143 78.1 11.0678 1.275 
2144 79.165 10.4529 1.275 
2145 79.165 11.6827 1.275 
2146 80.23 9.83805 1.275 
2153 81.295 10.4529 1.275 
2154 81.295 11.6827 1.275 
2155 82.36 11.0678 1.275 
2156 83.425 10.4529 1.275 
2157 83.425 11.6827 1.275 
2626 80.23 12.2976 1.275 
1206 85.555 6.76366 1.275 
1209 87.685 6.76366 1.275 
1218 89.815 6.76366 1.275 
1678 84.49 7.37854 1.275 
1685 85.555 7.99341 1.275 
1686 85.555 9.22317 1.275 
1687 86.62 8.60829 1.275 
1688 87.685 7.99341 1.275 
1689 87.685 9.22317 1.275 
1690 88.75 7.37854 1.275 
1697 89.815 7.99341 1.275 
1698 89.815 9.22317 1.275 
2158 84.49 9.83805 1.275 
2165 85.555 10.4529 1.275 
2166 85.555 11.6827 1.275 
2167 86.62 11.0678 1.275 
2168 87.685 10.4529 1.275 
2169 87.685 11.6827 1.275 
2170 88.75 9.83805 1.275 
2177 89.815 10.4529 1.275 
2178 89.815 11.6827 1.275 
2638 84.49 12.2976 1.275 
2650 88.75 12.2976 1.275 
1221 91.945 6.76366 1.275 
1230 94.075 6.76366 1.275 
1699 90.88 8.60829 1.275 
1700 91.945 7.99341 1.275 
1701 91.945 9.22317 1.275 
1702 93.01 7.37854 1.275 
1709 94.075 7.99341 1.275 
1710 94.075 9.22317 1.275 
1711 95.14 8.60829 1.275 
2179 90.88 11.0678 1.275 
2180 91.945 10.4529 1.275 
2181 91.945 11.6827 1.275 
2182 93.01 9.83805 1.275 
2189 94.075 10.4529 1.275 
2190 94.075 11.6827 1.275 
2191 95.14 11.0678 1.275 
2662 93.01 12.2976 1.275 
1233 96.205 6.76366 1.275 
1242 98.335 6.76366 1.275 
1245 100.465 6.76366 1.275 
1712 96.205 7.99341 1.275 
1713 96.205 9.22317 1.275 
1714 97.27 7.37854 1.275 
1721 98.335 7.99341 1.275 
1722 98.335 9.22317 1.275 
1723 99.4 8.60829 1.275 
1724 100.465 7.99341 1.275 
1725 100.465 9.22317 1.275 
1726 101.53 7.37854 1.275 
2192 96.205 10.4529 1.275 
2193 96.205 11.6827 1.275 
2194 97.27 9.83805 1.275 
2201 98.335 10.4529 1.275 
2202 98.335 11.6827 1.275 
2203 99.4 11.0678 1.275 
2204 100.465 10.4529 1.275 
2205 100.465 11.6827 1.275 
2206 101.53 9.83805 1.275 
2674 97.27 12.2976 1.275 
2686 101.53 12.2976 1.275 
1254 102.595 6.76366 1.275 
1257 104.725 6.76366 1.275 
1266 106.855 6.76366 1.275 
1733 102.595 7.99341 1.275 
1734 102.595 9.22317 1.275 
1735 103.66 8.60829 1.275 
1736 104.725 7.99341 1.275 
1737 104.725 9.22317 1.275 
1738 105.79 7.37854 1.275 
1745 106.855 7.99341 1.275 
1746 106.855 9.22317 1.275 
1747 107.92 8.60829 1.275 
2213 102.595 10.4529 1.275 
2214 102.595 11.6827 1.275 
2215 103.66 11.0678 1.275 
2216 104.725 10.4529 1.275 
2217 104.725 11.6827 1.275 
2218 105.79 9.83805 1.275 
2225 106.855 10.4529 1.275 
2226 106.855 11.6827 1.275 
2227 107.92 11.0678 1.275 
2698 105.79 12.2976 1.275 
1269 108.985 6.76366 1.275 
1278 111.115 6.76366 1.275 
1281 113.245 6.76366 1.275 
1748 108.985 7.99341 1.275 
1749 108.985 9.22317 1.275 
1750 110.05 7.37854 1.275 
1757 111.115 7.99341 1.275 
1758 111.115 9.22317 1.275 
1759 112.18 8.60829 1.275 
1760 113.245 7.99341 1.275 
1761 113.245 9.22317 1.275 
2228 108.985 10.4529 1.275 
2229 108.985 11.6827 1.275 
2230 110.05 9.83805 1.275 
2237 111.115 10.4529 1.275 
2238 111.115 11.6827 1.275 
2239 112.18 11.0678 1.275 
2240 113.245 10.4529 1.275 
2241 113.245 11.6827 1.275 
2710 110.05 12.2976 1.275 
1290 115.375 6.76366 1.275 
1293 117.505 6.76366 1.275 
1302 119.635 6.76366 1.275 
1762 114.31 7.37854 1.275 
1769 115.375 7.99341 1.275 
1770 115.375 9.22317 1.275 
1771 116.44 8.60829 1.275 
1772 117.505 7.99341 1.275 
1773 117.505 9.22317 1.275 
1774 118.57 7.37854 1.275 
1781 119.635 7.99341 1.275 
1782 119.635 9.22317 1.275 
2242 114.31 9.83805 1.275 
2249 115.375 10.4529 1.275 
2250 115.375 11.6827 1.275 
2251 116.44 11.0678 1.275 
2252 117.505 10.4529 1.275 
2253 117.505 11.6827 1.275 
2254 118.57 9.83805 1.275 
2261 119.635 10.4529 1.275 
2262 119.635 11.6827 1.275 
2722 114.31 12.2976 1.275 
2734 118.57 12.2976 1.275 
1305 121.765 6.76366 1.275 
1314 123.895 6.76366 1.275 
1317 126.025 6.76366 1.275 
1783 120.7 8.60829 1.275 
1784 121.765 7.99341 1.275 
1785 121.765 9.22317 1.275 
1786 122.83 7.37854 1.275 
1793 123.895 7.99341 1.275 
1794 123.895 9.22317 1.275 
1795 124.96 8.60829 1.275 
1796 126.025 7.99341 1.275 
1797 126.025 9.22317 1.275 
2263 120.7 11.0678 1.275 
2264 121.765 10.4529 1.275 
2265 121.765 11.6827 1.275 
2266 122.83 9.83805 1.275 
2273 123.895 10.4529 1.275 
2274 123.895 11.6827 1.275 
2275 124.96 11.0678 1.275 
2276 126.025 10.4529 1.275 
2277 126.025 11.6827 1.275 
2746 122.83 12.2976 1.275 
1326 128.155 6.76366 1.275 
1329 130.285 6.76366 1.275 
1338 132.415 6.76366 1.275 
1798 127.09 7.37854 1.275 
1805 128.155 7.99341 1.275 
1806 128.155 9.22317 1.275 
1807 129.22 8.60829 1.275 
1808 130.285 7.99341 1.275 
1809 130.285 9.22317 1.275 
1810 131.35 7.37854 1.275 
1817 132.415 7.99341 1.275 
1818 132.415 9.22317 1.275 
2278 127.09 9.83805 1.275 
2285 128.155 10.4529 1.275 
2286 128.155 11.6827 1.275 
2287 129.22 11.0678 1.275 
2288 130.285 10.4529 1.275 
2289 130.285 11.6827 1.275 
2290 131.35 9.83805 1.275 
2297 132.415 10.4529 1.275 
2298 132.415 11.6827 1.275 
2758 127.09 12.2976 1.275 
2770 131.35 12.2976 1.275 
1341 134.545 6.76366 1.275 
1350 136.675 6.76366 1.275 
1819 133.48 8.60829 1.275 
1820 134.545 7.99341 1.275 
1821 134.545 9.22317 1.275 
1822 135.61 7.37854 1.275 
1829 136.675 7.99341 1.275 
1830 136.675 9.22317 1.275 
1831 137.74 8.60829 1.275 
2299 133.48 11.0678 1.275 
2300 134.545 10.4529 1.275 
2301 134.545 11.6827 1.275 
2302 135.61 9.83805 1.275 
2309 136.675 10.4529 1.275 
2310 136.675 11.6827 1.275 
2311 137.74 11.0678 1.275 
2782 135.61 12.2976 1.275 
1353 138.805 6.76366 1.275 
1362 140.935 6.76366 1.275 
1365 143.065 6.76366 1.275 
1832 138.805 7.99341 1.275 
1833 138.805 9.22317 1.275 
1834 139.87 7.37854 1.275 