ITEM: TIMESTEP
0
ITEM: NUMBER OF ATOMS
48000
ITEM: BOX BOUNDS pp pp ff
-7.1999999999999997e-01 1.6969000000000000e+02
0.0000000000000000e+00 1.4757072880486899e+02
-3.5000000000000000e+01 1.0000000000000000e+02
ITEM: ATOMS id x y z 
2 0 0 0 
3 0.71 1.22976 0 
4 2.13 1.22976 0 
5 2.84 0 0 
10 4.26 0 0 
11 4.97 1.22976 0 
322 0 2.45951 0 
323 0.71 3.68927 0 
324 2.13 3.68927 0 
325 2.84 2.45951 0 
330 4.26 2.45951 0 
331 4.97 3.68927 0 
642 0 4.91902 0 
643 0.71 6.14878 0 
644 2.13 6.14878 0 
645 2.84 4.91902 0 
650 4.26 4.91902 0 
651 4.97 6.14878 0 
12 6.39 1.22976 0 
13 7.1 0 0 
18 8.52 0 0 
19 9.23 1.22976 0 
20 10.65 1.22976 0 
21 11.36 0 0 
332 6.39 3.68927 0 
333 7.1 2.45951 0 
338 8.52 2.45951 0 
339 9.23 3.68927 0 
340 10.65 3.68927 0 
341 11.36 2.45951 0 
652 6.39 6.14878 0 
653 7.1 4.91902 0 
658 8.52 4.91902 0 
659 9.23 6.14878 0 
660 10.65 6.14878 0 
661 11.36 4.91902 0 
26 12.78 0 0 
27 13.49 1.22976 0 
28 14.91 1.22976 0 
29 15.62 0 0 
34 17.04 0 0 
346 12.78 2.45951 0 
347 13.49 3.68927 0 
348 14.91 3.68927 0 
349 15.62 2.45951 0 
354 17.04 2.45951 0 
666 12.78 4.91902 0 
667 13.49 6.14878 0 
668 14.91 6.14878 0 
669 15.62 4.91902 0 
674 17.04 4.91902 0 
35 17.75 1.22976 0 
36 19.17 1.22976 0 
37 19.88 0 0 
42 21.3 0 0 
43 22.01 1.22976 0 
44 23.43 1.22976 0 
355 17.75 3.68927 0 
356 19.17 3.68927 0 
357 19.88 2.45951 0 
362 21.3 2.45951 0 
363 22.01 3.68927 0 
364 23.43 3.68927 0 
675 17.75 6.14878 0 
676 19.17 6.14878 0 
677 19.88 4.91902 0 
682 21.3 4.91902 0 
683 22.01 6.14878 0 
684 23.43 6.14878 0 
45 24.14 0 0 
50 25.56 0 0 
51 26.27 1.22976 0 
52 27.69 1.22976 0 
53 28.4 0 0 
365 24.14 2.45951 0 
370 25.56 2.45951 0 
371 26.27 3.68927 0 
372 27.69 3.68927 0 
373 28.4 2.45951 0 
685 24.14 4.91902 0 
690 25.56 4.91902 0 
691 26.27 6.14878 0 
692 27.69 6.14878 0 
693 28.4 4.91902 0 
58 29.82 0 0 
59 30.53 1.22976 0 
60 31.95 1.22976 0 
61 32.66 0 0 
66 34.08 0 0 
67 34.79 1.22976 0 
378 29.82 2.45951 0 
379 30.53 3.68927 0 
380 31.95 3.68927 0 
381 32.66 2.45951 0 
386 34.08 2.45951 0 
387 34.79 3.68927 0 
698 29.82 4.91902 0 
699 30.53 6.14878 0 
700 31.95 6.14878 0 
701 32.66 4.91902 0 
706 34.08 4.91902 0 
707 34.79 6.14878 0 
68 36.21 1.22976 0 
69 36.92 0 0 
74 38.34 0 0 
75 39.05 1.22976 0 
76 40.47 1.22976 0 
77 41.18 0 0 
388 36.21 3.68927 0 
389 36.92 2.45951 0 
394 38.34 2.45951 0 
395 39.05 3.68927 0 
396 40.47 3.68927 0 
397 41.18 2.45951 0 
708 36.21 6.14878 0 
709 36.92 4.91902 0 
714 38.34 4.91902 0 
715 39.05 6.14878 0 
716 40.47 6.14878 0 
717 41.18 4.91902 0 
82 42.6 0 0 
83 43.31 1.22976 0 
84 44.73 1.22976 0 
85 45.44 0 0 
90 46.86 0 0 
91 47.57 1.22976 0 
402 42.6 2.45951 0 
403 43.31 3.68927 0 
404 44.73 3.68927 0 
405 45.44 2.45951 0 
410 46.86 2.45951 0 
411 47.57 3.68927 0 
722 42.6 4.91902 0 
723 43.31 6.14878 0 
724 44.73 6.14878 0 
725 45.44 4.91902 0 
730 46.86 4.91902 0 
731 47.57 6.14878 0 
92 48.99 1.22976 0 
93 49.7 0 0 
98 51.12 0 0 
99 51.83 1.22976 0 
100 53.25 1.22976 0 
101 53.96 0 0 
412 48.99 3.68927 0 
413 49.7 2.45951 0 
418 51.12 2.45951 0 
419 51.83 3.68927 0 
420 53.25 3.68927 0 
421 53.96 2.45951 0 
732 48.99 6.14878 0 
733 49.7 4.91902 0 
738 51.12 4.91902 0 
739 51.83 6.14878 0 
740 53.25 6.14878 0 
741 53.96 4.91902 0 
106 55.38 0 0 
107 56.09 1.22976 0 
108 57.51 1.22976 0 
109 58.22 0 0 
114 59.64 0 0 
426 55.38 2.45951 0 
427 56.09 3.68927 0 
428 57.51 3.68927 0 
429 58.22 2.45951 0 
434 59.64 2.45951 0 
746 55.38 4.91902 0 
747 56.09 6.14878 0 
748 57.51 6.14878 0 
749 58.22 4.91902 0 
754 59.64 4.91902 0 
115 60.35 1.22976 0 
116 61.77 1.22976 0 
117 62.48 0 0 
122 63.9 0 0 
123 64.61 1.22976 0 
124 66.03 1.22976 0 
435 60.35 3.68927 0 
436 61.77 3.68927 0 
437 62.48 2.45951 0 
442 63.9 2.45951 0 
443 64.61 3.68927 0 
444 66.03 3.68927 0 
755 60.35 6.14878 0 
756 61.77 6.14878 0 
757 62.48 4.91902 0 
762 63.9 4.91902 0 
763 64.61 6.14878 0 
764 66.03 6.14878 0 
125 66.74 0 0 
130 68.16 0 0 
131 68.87 1.22976 0 
132 70.29 1.22976 0 
133 71 0 0 
445 66.74 2.45951 0 
450 68.16 2.45951 0 
451 68.87 3.68927 0 
452 70.29 3.68927 0 
453 71 2.45951 0 
765 66.74 4.91902 0 
770 68.16 4.91902 0 
771 68.87 6.14878 0 
772 70.29 6.14878 0 
773 71 4.91902 0 
138 72.42 0 0 
139 73.13 1.22976 0 
140 74.55 1.22976 0 
141 75.26 0 0 
146 76.68 0 0 
147 77.39 1.22976 0 
458 72.42 2.45951 0 
459 73.13 3.68927 0 
460 74.55 3.68927 0 
461 75.26 2.45951 0 
466 76.68 2.45951 0 
467 77.39 3.68927 0 
778 72.42 4.91902 0 
779 73.13 6.14878 0 
780 74.55 6.14878 0 
781 75.26 4.91902 0 
786 76.68 4.91902 0 
787 77.39 6.14878 0 
148 78.81 1.22976 0 
149 79.52 0 0 
154 80.94 0 0 
155 81.65 1.22976 0 
156 83.07 1.22976 0 
157 83.78 0 0 
468 78.81 3.68927 0 
469 79.52 2.45951 0 
474 80.94 2.45951 0 
475 81.65 3.68927 0 
476 83.07 3.68927 0 
477 83.78 2.45951 0 
788 78.81 6.14878 0 
789 79.52 4.91902 0 
794 80.94 4.91902 0 
795 81.65 6.14878 0 
796 83.07 6.14878 0 
797 83.78 4.91902 0 
162 85.2 0 0 
163 85.91 1.22976 0 
164 87.33 1.22976 0 
165 88.04 0 0 
170 89.46 0 0 
171 90.17 1.22976 0 
482 85.2 2.45951 0 
483 85.91 3.68927 0 
484 87.33 3.68927 0 
485 88.04 2.45951 0 
490 89.46 2.45951 0 
491 90.17 3.68927 0 
802 85.2 4.91902 0 
803 85.91 6.14878 0 
804 87.33 6.14878 0 
805 88.04 4.91902 0 
810 89.46 4.91902 0 
811 90.17 6.14878 0 
172 91.59 1.22976 0 
173 92.3 0 0 
178 93.72 0 0 
179 94.43 1.22976 0 
180 95.85 1.22976 0 
181 96.56 0 0 
492 91.59 3.68927 0 
493 92.3 2.45951 0 
498 93.72 2.45951 0 
499 94.43 3.68927 0 
500 95.85 3.68927 0 
501 96.56 2.45951 0 
812 91.59 6.14878 0 
813 92.3 4.91902 0 
818 93.72 4.91902 0 
819 94.43 6.14878 0 
820 95.85 6.14878 0 
821 96.56 4.91902 0 
186 97.98 0 0 
187 98.69 1.22976 0 
188 100.11 1.22976 0 
189 100.82 0 0 
194 102.24 0 0 
506 97.98 2.45951 0 
507 98.69 3.68927 0 
508 100.11 3.68927 0 
509 100.82 2.45951 0 
514 102.24 2.45951 0 
826 97.98 4.91902 0 
827 98.69 6.14878 0 
828 100.11 6.14878 0 
829 100.82 4.91902 0 
834 102.24 4.91902 0 
195 102.95 1.22976 0 
196 104.37 1.22976 0 
197 105.08 0 0 
202 106.5 0 0 
203 107.21 1.22976 0 
204 108.63 1.22976 0 
515 102.95 3.68927 0 
516 104.37 3.68927 0 
517 105.08 2.45951 0 
522 106.5 2.45951 0 
523 107.21 3.68927 0 
524 108.63 3.68927 0 
835 102.95 6.14878 0 
836 104.37 6.14878 0 
837 105.08 4.91902 0 
842 106.5 4.91902 0 
843 107.21 6.14878 0 
844 108.63 6.14878 0 
205 109.34 0 0 
210 110.76 0 0 
211 111.47 1.22976 0 
212 112.89 1.22976 0 
213 113.6 0 0 
525 109.34 2.45951 0 
530 110.76 2.45951 0 
531 111.47 3.68927 0 
532 112.89 3.68927 0 
533 113.6 2.45951 0 
845 109.34 4.91902 0 
850 110.76 4.91902 0 
851 111.47 6.14878 0 
852 112.89 6.14878 0 
853 113.6 4.91902 0 
218 115.02 0 0 
219 115.73 1.22976 0 
220 117.15 1.22976 0 
221 117.86 0 0 
226 119.28 0 0 
227 119.99 1.22976 0 
538 115.02 2.45951 0 
539 115.73 3.68927 0 
540 117.15 3.68927 0 
541 117.86 2.45951 0 
546 119.28 2.45951 0 
547 119.99 3.68927 0 
858 115.02 4.91902 0 
859 115.73 6.14878 0 
860 117.15 6.14878 0 
861 117.86 4.91902 0 
866 119.28 4.91902 0 
867 119.99 6.14878 0 
228 121.41 1.22976 0 
229 122.12 0 0 
234 123.54 0 0 
235 124.25 1.22976 0 
236 125.67 1.22976 0 
237 126.38 0 0 
548 121.41 3.68927 0 
549 122.12 2.45951 0 
554 123.54 2.45951 0 
555 124.25 3.68927 0 
556 125.67 3.68927 0 
557 126.38 2.45951 0 
868 121.41 6.14878 0 
869 122.12 4.91902 0 
874 123.54 4.91902 0 
875 124.25 6.14878 0 
876 125.67 6.14878 0 
877 126.38 4.91902 0 
242 127.8 0 0 
243 128.51 1.22976 0 
244 129.93 1.22976 0 
245 130.64 0 0 
250 132.06 0 0 
251 132.77 1.22976 0 
562 127.8 2.45951 0 
563 128.51 3.68927 0 
564 129.93 3.68927 0 
565 130.64 2.45951 0 
570 132.06 2.45951 0 
571 132.77 3.68927 0 
882 127.8 4.91902 0 
883 128.51 6.14878 0 
884 129.93 6.14878 0 
885 130.64 4.91902 0 
890 132.06 4.91902 0 
891 132.77 6.14878 0 
252 134.19 1.22976 0 
253 134.9 0 0 
258 136.32 0 0 
259 137.03 1.22976 0 
260 138.45 1.22976 0 
261 139.16 0 0 
572 134.19 3.68927 0 
573 134.9 2.45951 0 
578 136.32 2.45951 0 
579 137.03 3.68927 0 
580 138.45 3.68927 0 
581 139.16 2.45951 0 
892 134.19 6.14878 0 
893 134.9 4.91902 0 
898 136.32 4.91902 0 
899 137.03 6.14878 0 
900 138.45 6.14878 0 
901 139.16 4.91902 0 
266 140.58 0 0 
267 141.29 1.22976 0 
268 142.71 1.22976 0 
269 143.42 0 0 
274 144.84 0 0 
586 140.58 2.45951 0 
587 141.29 3.68927 0 
588 142.71 3.68927 0 
589 143.42 2.45951 0 
594 144.84 2.45951 0 
906 140.58 4.91902 0 
907 141.29 6.14878 0 
908 142.71 6.14878 0 
909 143.42 4.91902 0 
914 144.84 4.91902 0 
275 145.55 1.22976 0 
276 146.97 1.22976 0 
277 147.68 0 0 
282 149.1 0 0 
283 149.81 1.22976 0 
284 151.23 1.22976 0 
595 145.55 3.68927 0 
596 146.97 3.68927 0 
597 147.68 2.45951 0 
602 149.1 2.45951 0 
603 149.81 3.68927 0 
604 151.23 3.68927 0 
915 145.55 6.14878 0 
916 146.97 6.14878 0 
917 147.68 4.91902 0 
922 149.1 4.91902 0 
923 149.81 6.14878 0 
924 151.23 6.14878 0 
285 151.94 0 0 
290 153.36 0 0 
291 154.07 1.22976 0 
292 155.49 1.22976 0 
293 156.2 0 0 
605 151.94 2.45951 0 
610 153.36 2.45951 0 
611 154.07 3.68927 0 
612 155.49 3.68927 0 
613 156.2 2.45951 0 
925 151.94 4.91902 0 
930 153.36 4.91902 0 
931 154.07 6.14878 0 
932 155.49 6.14878 0 
933 156.2 4.91902 0 
298 157.62 0 0 
299 158.33 1.22976 0 
300 159.75 1.22976 0 
301 160.46 0 0 
306 161.88 0 0 
307 162.59 1.22976 0 
618 157.62 2.45951 0 
619 158.33 3.68927 0 
620 159.75 3.68927 0 
621 160.46 2.45951 0 
626 161.88 2.45951 0 
627 162.59 3.68927 0 
938 157.62 4.91902 0 
939 158.33 6.14878 0 
940 159.75 6.14878 0 
941 160.46 4.91902 0 
946 161.88 4.91902 0 
947 162.59 6.14878 0 
308 164.01 1.22976 0 
309 164.72 0 0 
314 166.14 0 0 
315 166.85 1.22976 0 
316 168.27 1.22976 0 
317 168.98 0 0 
628 164.01 3.68927 0 
629 164.72 2.45951 0 
634 166.14 2.45951 0 
635 166.85 3.68927 0 
636 168.27 3.68927 0 
637 168.98 2.45951 0 
948 164.01 6.14878 0 
949 164.72 4.91902 0 
954 166.14 4.91902 0 
955 166.85 6.14878 0 
956 168.27 6.14878 0 
957 168.98 4.91902 0 
962 0 7.37854 0 
963 0.71 8.60829 0 
964 2.13 8.60829 0 
965 2.84 7.37854 0 
970 4.26 7.37854 0 
971 4.97 8.60829 0 
1282 0 9.83805 0 
1283 0.71 11.0678 0 
1284 2.13 11.0678 0 
1285 2.84 9.83805 0 
1290 4.26 9.83805 0 
1291 4.97 11.0678 0 
1602 0 12.2976 0 
1605 2.84 12.2976 0 
1610 4.26 12.2976 0 
972 6.39 8.60829 0 
973 7.1 7.37854 0 
978 8.52 7.37854 0 
979 9.23 8.60829 0 
980 10.65 8.60829 0 
981 11.36 7.37854 0 
1292 6.39 11.0678 0 
1293 7.1 9.83805 0 
1298 8.52 9.83805 0 
1299 9.23 11.0678 0 
1300 10.65 11.0678 0 
1301 11.36 9.83805 0 
1613 7.1 12.2976 0 
1618 8.52 12.2976 0 
1621 11.36 12.2976 0 
986 12.78 7.37854 0 
987 13.49 8.60829 0 
988 14.91 8.60829 0 
989 15.62 7.37854 0 
994 17.04 7.37854 0 
1306 12.78 9.83805 0 
1307 13.49 11.0678 0 
1308 14.91 11.0678 0 
1309 15.62 9.83805 0 
1314 17.04 9.83805 0 
1626 12.78 12.2976 0 
1629 15.62 12.2976 0 
1634 17.04 12.2976 0 
995 17.75 8.60829 0 
996 19.17 8.60829 0 
997 19.88 7.37854 0 
1002 21.3 7.37854 0 
1003 22.01 8.60829 0 
1004 23.43 8.60829 0 
1315 17.75 11.0678 0 
1316 19.17 11.0678 0 
1317 19.88 9.83805 0 
1322 21.3 9.83805 0 
1323 22.01 11.0678 0 
1324 23.43 11.0678 0 
1637 19.88 12.2976 0 
1642 21.3 12.2976 0 
1005 24.14 7.37854 0 
1010 25.56 7.37854 0 
1011 26.27 8.60829 0 
1012 27.69 8.60829 0 
1013 28.4 7.37854 0 
1325 24.14 9.83805 0 
1330 25.56 9.83805 0 
1331 26.27 11.0678 0 
1332 27.69 11.0678 0 
1333 28.4 9.83805 0 
1645 24.14 12.2976 0 
1650 25.56 12.2976 0 
1653 28.4 12.2976 0 
1018 29.82 7.37854 0 
1019 30.53 8.60829 0 
1020 31.95 8.60829 0 
1021 32.66 7.37854 0 
1026 34.08 7.37854 0 
1027 34.79 8.60829 0 
1338 29.82 9.83805 0 
1339 30.53 11.0678 0 
1340 31.95 11.0678 0 
1341 32.66 9.83805 0 
1346 34.08 9.83805 0 
1347 34.79 11.0678 0 
1658 29.82 12.2976 0 
1661 32.66 12.2976 0 
1666 34.08 12.2976 0 
1028 36.21 8.60829 0 
1029 36.92 7.37854 0 
1034 38.34 7.37854 0 
1035 39.05 8.60829 0 
1036 40.47 8.60829 0 
1037 41.18 7.37854 0 
1348 36.21 11.0678 0 
1349 36.92 9.83805 0 
1354 38.34 9.83805 0 
1355 39.05 11.0678 0 
1356 40.47 11.0678 0 
1357 41.18 9.83805 0 
1669 36.92 12.2976 0 
1674 38.34 12.2976 0 
1677 41.18 12.2976 0 
1042 42.6 7.37854 0 
1043 43.31 8.60829 0 
1044 44.73 8.60829 0 
1045 45.44 7.37854 0 
1050 46.86 7.37854 0 
1051 47.57 8.60829 0 
1362 42.6 9.83805 0 
1363 43.31 11.0678 0 
1364 44.73 11.0678 0 
1365 45.44 9.83805 0 
1370 46.86 9.83805 0 
1371 47.57 11.0678 0 
1682 42.6 12.2976 0 
1685 45.44 12.2976 0 
1690 46.86 12.2976 0 
1052 48.99 8.60829 0 
1053 49.7 7.37854 0 
1058 51.12 7.37854 0 
1059 51.83 8.60829 0 
1060 53.25 8.60829 0 
1061 53.96 7.37854 0 
1372 48.99 11.0678 0 
1373 49.7 9.83805 0 
1378 51.12 9.83805 0 
1379 51.83 11.0678 0 
1380 53.25 11.0678 0 
1381 53.96 9.83805 0 
1693 49.7 12.2976 0 
1698 51.12 12.2976 0 
1701 53.96 12.2976 0 
1066 55.38 7.37854 0 
1067 56.09 8.60829 0 
1068 57.51 8.60829 0 
1069 58.22 7.37854 0 
1074 59.64 7.37854 0 
1386 55.38 9.83805 0 
1387 56.09 11.0678 0 
1388 57.51 11.0678 0 
1389 58.22 9.83805 0 
1394 59.64 9.83805 0 
1706 55.38 12.2976 0 
1709 58.22 12.2976 0 
1714 59.64 12.2976 0 
1075 60.35 8.60829 0 
1076 61.77 8.60829 0 
1077 62.48 7.37854 0 
1082 63.9 7.37854 0 
1083 64.61 8.60829 0 
1084 66.03 8.60829 0 
1395 60.35 11.0678 0 
1396 61.77 11.0678 0 
1397 62.48 9.83805 0 
1402 63.9 9.83805 0 
1403 64.61 11.0678 0 
1404 66.03 11.0678 0 
1717 62.48 12.2976 0 
1722 63.9 12.2976 0 
1085 66.74 7.37854 0 
1090 68.16 7.37854 0 
1091 68.87 8.60829 0 
1092 70.29 8.60829 0 
1093 71 7.37854 0 
1405 66.74 9.83805 0 
1410 68.16 9.83805 0 
1411 68.87 11.0678 0 
1412 70.29 11.0678 0 
1413 71 9.83805 0 
1725 66.74 12.2976 0 
1730 68.16 12.2976 0 
1733 71 12.2976 0 
1098 72.42 7.37854 0 
1099 73.13 8.60829 0 
1100 74.55 8.60829 0 
1101 75.26 7.37854 0 
1106 76.68 7.37854 0 
1107 77.39 8.60829 0 
1418 72.42 9.83805 0 
1419 73.13 11.0678 0 
1420 74.55 11.0678 0 
1421 75.26 9.83805 0 
1426 76.68 9.83805 0 
1427 77.39 11.0678 0 
1738 72.42 12.2976 0 
1741 75.26 12.2976 0 
1746 76.68 12.2976 0 
1108 78.81 8.60829 0 
1109 79.52 7.37854 0 
1114 80.94 7.37854 0 
1115 81.65 8.60829 0 
1116 83.07 8.60829 0 
1117 83.78 7.37854 0 
1428 78.81 11.0678 0 
1429 79.52 9.83805 0 
1434 80.94 9.83805 0 
1435 81.65 11.0678 0 
1436 83.07 11.0678 0 
1437 83.78 9.83805 0 
1749 79.52 12.2976 0 
1754 80.94 12.2976 0 
1757 83.78 12.2976 0 
1122 85.2 7.37854 0 
1123 85.91 8.60829 0 
1124 87.33 8.60829 0 
1125 88.04 7.37854 0 
1130 89.46 7.37854 0 
1131 90.17 8.60829 0 
1442 85.2 9.83805 0 
1443 85.91 11.0678 0 
1444 87.33 11.0678 0 
1445 88.04 9.83805 0 
1450 89.46 9.83805 0 
1451 90.17 11.0678 0 
1762 85.2 12.2976 0 
1765 88.04 12.2976 0 
1770 89.46 12.2976 0 
1132 91.59 8.60829 0 
1133 92.3 7.37854 0 
1138 93.72 7.37854 0 
1139 94.43 8.60829 0 
1140 95.85 8.60829 0 
1141 96.56 7.37854 0 
1452 91.59 11.0678 0 
1453 92.3 9.83805 0 
1458 93.72 9.83805 0 
1459 94.43 11.0678 0 
1460 95.85 11.0678 0 
1461 96.56 9.83805 0 
1773 92.3 12.2976 0 
1778 93.72 12.2976 0 
1781 96.56 12.2976 0 
1146 97.98 7.37854 0 
1147 98.69 8.60829 0 
1148 100.11 8.60829 0 
1149 100.82 7.37854 0 
1154 102.24 7.37854 0 
1466 97.98 9.83805 0 
1467 98.69 11.0678 0 
1468 100.11 11.0678 0 
1469 100.82 9.83805 0 
1474 102.24 9.83805 0 
1786 97.98 12.2976 0 
1789 100.82 12.2976 0 
1794 102.24 12.2976 0 
1155 102.95 8.60829 0 
1156 104.37 8.60829 0 
1157 105.08 7.37854 0 
1162 106.5 7.37854 0 
1163 107.21 8.60829 0 
1164 108.63 8.60829 0 
1475 102.95 11.0678 0 
1476 104.37 11.0678 0 
1477 105.08 9.83805 0 
1482 106.5 9.83805 0 
1483 107.21 11.0678 0 
1484 108.63 11.0678 0 
1797 105.08 12.2976 0 
1802 106.5 12.2976 0 
1165 109.34 7.37854 0 
1170 110.76 7.37854 0 
1171 111.47 8.60829 0 
1172 112.89 8.60829 0 
1173 113.6 7.37854 0 
1485 109.34 9.83805 0 
1490 110.76 9.83805 0 
1491 111.47 11.0678 0 
1492 112.89 11.0678 0 
1493 113.6 9.83805 0 
1805 109.34 12.2976 0 
1810 110.76 12.2976 0 
1813 113.6 12.2976 0 
1178 115.02 7.37854 0 
1179 115.73 8.60829 0 
1180 117.15 8.60829 0 
1181 117.86 7.37854 0 
1186 119.28 7.37854 0 
1187 119.99 8.60829 0 
1498 115.02 9.83805 0 
1499 115.73 11.0678 0 
1500 117.15 11.0678 0 
1501 117.86 9.83805 0 
1506 119.28 9.83805 0 
1507 119.99 11.0678 0 
1818 115.02 12.2976 0 
1821 117.86 12.2976 0 
1826 119.28 12.2976 0 
1188 121.41 8.60829 0 
1189 122.12 7.37854 0 
1194 123.54 7.37854 0 
1195 124.25 8.60829 0 
1196 125.67 8.60829 0 
1197 126.38 7.37854 0 
1508 121.41 11.0678 0 
1509 122.12 9.83805 0 
1514 123.54 9.83805 0 
1515 124.25 11.0678 0 
1516 125.67 11.0678 0 
1517 126.38 9.83805 0 
1829 122.12 12.2976 0 
1834 123.54 12.2976 0 
1837 126.38 12.2976 0 
1202 127.8 7.37854 0 
1203 128.51 8.60829 0 
1204 129.93 8.60829 0 
1205 130.64 7.37854 0 
1210 132.06 7.37854 0 
1211 132.77 8.60829 0 
1522 127.8 9.83805 0 
1523 128.51 11.0678 0 
1524 129.93 11.0678 0 
1525 130.64 9.83805 0 
1530 132.06 9.83805 0 
1531 132.77 11.0678 0 
1842 127.8 12.2976 0 
1845 130.64 12.2976 0 
1850 132.06 12.2976 0 
1212 134.19 8.60829 0 
1213 134.9 7.37854 0 
1218 136.32 7.37854 0 
1219 137.03 8.60829 0 
1220 138.45 8.60829 0 
1221 139.16 7.37854 0 
1532 134.19 11.0678 0 
1533 134.9 9.83805 0 
1538 136.32 9.83805 0 
1539 137.03 11.0678 0 
1540 138.45 11.0678 0 
1541 139.16 9.83805 0 
1853 134.9 12.2976 0 
1858 136.32 12.2976 0 
1861 139.16 12.2976 0 
1226 140.58 7.37854 0 
1227 141.29 8.60829 0 
1228 142.71 8.60829 0 
1229 143.42 7.37854 0 
1234 144.84 7.37854 0 
1546 140.58 9.83805 0 
1547 141.29 11.0678 0 
1548 142.71 11.0678 0 
1549 143.42 9.83805 0 
1554 144.84 9.83805 0 
1866 140.58 12.2976 0 
1869 143.42 12.2976 0 
1874 144.84 12.2976 0 
1235 145.55 8.60829 0 
1236 146.97 8.60829 0 
1237 147.68 7.37854 0 
1242 149.1 7.37854 0 
1243 149.81 8.60829 0 
1244 151.23 8.60829 0 
1555 145.55 11.0678 0 
1556 146.97 11.0678 0 
1557 147.68 9.83805 0 
1562 149.1 9.83805 0 
1563 149.81 11.0678 0 
1564 151.23 11.0678 0 
1877 147.68 12.2976 0 
1882 149.1 12.2976 0 
1245 151.94 7.37854 0 
1250 153.36 7.37854 0 
1251 154.07 8.60829 0 
1252 155.49 8.60829 0 
1253 156.2 7.37854 0 
1565 151.94 9.83805 0 
1570 153.36 9.83805 0 
1571 154.07 11.0678 0 
1572 155.49 11.0678 0 
1573 156.2 9.83805 0 
1885 151.94 12.2976 0 
1890 153.36 12.2976 0 
1893 156.2 12.2976 0 
1258 157.62 7.37854 0 
1259 158.33 8.60829 0 
1260 159.75 8.60829 0 
1261 160.46 7.37854 0 
1266 161.88 7.37854 0 
1267 162.59 8.60829 0 
1578 157.62 9.83805 0 
1579 158.33 11.0678 0 
1580 159.75 11.0678 0 
1581 160.46 9.83805 0 
1586 161.88 9.83805 0 
1587 162.59 11.0678 0 
1898 157.62 12.2976 0 
1901 160.46 12.2976 0 
1906 161.88 12.2976 0 
1268 164.01 8.60829 0 
1269 164.72 7.37854 0 
1274 166.14 7.37854 0 
1275 166.85 8.60829 0 
1276 168.27 8.60829 0 
1277 168.98 7.37854 0 
1588 164.01 11.0678 0 
1589 164.72 9.83805 0 
1594 166.14 9.83805 0 
1595 166.85 11.0678 0 
1596 168.27 11.0678 0 
1597 168.98 9.83805 0 
1909 164.72 12.2976 0 
1914 166.14 12.2976 0 
1917 168.98 12.2976 0 
1603 0.71 13.5273 0 
1604 2.13 13.5273 0 
1611 4.97 13.5273 0 
1922 0 14.7571 0 
1923 0.71 15.9868 0 
1924 2.13 15.9868 0 
1925 2.84 14.7571 0 
1930 4.26 14.7571 0 
1931 4.97 15.9868 0 
2242 0 17.2166 0 
2243 0.71 18.4463 0 
2244 2.13 18.4463 0 
2245 2.84 17.2166 0 
2250 4.26 17.2166 0 
2251 4.97 18.4463 0 
1612 6.39 13.5273 0 
1619 9.23 13.5273 0 
1620 10.65 13.5273 0 
1932 6.39 15.9868 0 
1933 7.1 14.7571 0 
1938 8.52 14.7571 0 
1939 9.23 15.9868 0 
1940 10.65 15.9868 0 
1941 11.36 14.7571 0 
2252 6.39 18.4463 0 
2253 7.1 17.2166 0 
2258 8.52 17.2166 0 
2259 9.23 18.4463 0 
2260 10.65 18.4463 0 
2261 11.36 17.2166 0 
1627 13.49 13.5273 0 
1628 14.91 13.5273 0 
1946 12.78 14.7571 0 
1947 13.49 15.9868 0 
1948 14.91 15.9868 0 
1949 15.62 14.7571 0 
1954 17.04 14.7571 0 
2266 12.78 17.2166 0 
2267 13.49 18.4463 0 
2268 14.91 18.4463 0 
2269 15.62 17.2166 0 
2274 17.04 17.2166 0 
1635 17.75 13.5273 0 
1636 19.17 13.5273 0 
1643 22.01 13.5273 0 
1644 23.43 13.5273 0 
1955 17.75 15.9868 0 
1956 19.17 15.9868 0 
1957 19.88 14.7571 0 
1962 21.3 14.7571 0 
1963 22.01 15.9868 0 
1964 23.43 15.9868 0 
2275 17.75 18.4463 0 
2276 19.17 18.4463 0 
2277 19.88 17.2166 0 
2282 21.3 17.2166 0 
2283 22.01 18.4463 0 
2284 23.43 18.4463 0 
1651 26.27 13.5273 0 
1652 27.69 13.5273 0 
1965 24.14 14.7571 0 
1970 25.56 14.7571 0 
1971 26.27 15.9868 0 
1972 27.69 15.9868 0 
1973 28.4 14.7571 0 
2285 24.14 17.2166 0 
2290 25.56 17.2166 0 
2291 26.27 18.4463 0 
2292 27.69 18.4463 0 
2293 28.4 17.2166 0 
1659 30.53 13.5273 0 
1660 31.95 13.5273 0 
1667 34.79 13.5273 0 
1978 29.82 14.7571 0 
1979 30.53 15.9868 0 
1980 31.95 15.9868 0 
1981 32.66 14.7571 0 
1986 34.08 14.7571 0 
1987 34.79 15.9868 0 
2298 29.82 17.2166 0 
2299 30.53 18.4463 0 
2300 31.95 18.4463 0 
2301 32.66 17.2166 0 
2306 34.08 17.2166 0 
2307 34.79 18.4463 0 
1668 36.21 13.5273 0 
1675 39.05 13.5273 0 
1676 40.47 13.5273 0 
1988 36.21 15.9868 0 
1989 36.92 14.7571 0 
1994 38.34 14.7571 0 
1995 39.05 15.9868 0 
1996 40.47 15.9868 0 
1997 41.18 14.7571 0 
2308 36.21 18.4463 0 
2309 36.92 17.2166 0 
2314 38.34 17.2166 0 
2315 39.05 18.4463 0 
2316 40.47 18.4463 0 
2317 41.18 17.2166 0 
1683 43.31 13.5273 0 
1684 44.73 13.5273 0 
1691 47.57 13.5273 0 
2002 42.6 14.7571 0 
2003 43.31 15.9868 0 
2004 44.73 15.9868 0 
2005 45.44 14.7571 0 
2010 46.86 14.7571 0 
2011 47.57 15.9868 0 
2322 42.6 17.2166 0 
2323 43.31 18.4463 0 
2324 44.73 18.4463 0 
2325 45.44 17.2166 0 
2330 46.86 17.2166 0 
2331 47.57 18.4463 0 
1692 48.99 13.5273 0 
1699 51.83 13.5273 0 
1700 53.25 13.5273 0 
2012 48.99 15.9868 0 
2013 49.7 14.7571 0 
2018 51.12 14.7571 0 
2019 51.83 15.9868 0 
2020 53.25 15.9868 0 
2021 53.96 14.7571 0 
2332 48.99 18.4463 0 
2333 49.7 17.2166 0 
2338 51.12 17.2166 0 
2339 51.83 18.4463 0 
2340 53.25 18.4463 0 
2341 53.96 17.2166 0 
1707 56.09 13.5273 0 
1708 57.51 13.5273 0 
2026 55.38 14.7571 0 
2027 56.09 15.9868 0 
2028 57.51 15.9868 0 
2029 58.22 14.7571 0 
2034 59.64 14.7571 0 
2346 55.38 17.2166 0 
2347 56.09 18.4463 0 
2348 57.51 18.4463 0 
2349 58.22 17.2166 0 
2354 59.64 17.2166 0 
1715 60.35 13.5273 0 
1716 61.77 13.5273 0 
1723 64.61 13.5273 0 
1724 66.03 13.5273 0 
2035 60.35 15.9868 0 
2036 61.77 15.9868 0 
2037 62.48 14.7571 0 
2042 63.9 14.7571 0 
2043 64.61 15.9868 0 
2044 66.03 15.9868 0 
2355 60.35 18.4463 0 
2356 61.77 18.4463 0 
2357 62.48 17.2166 0 
2362 63.9 17.2166 0 
2363 64.61 18.4463 0 
2364 66.03 18.4463 0 
1731 68.87 13.5273 0 
1732 70.29 13.5273 0 
2045 66.74 14.7571 0 
2050 68.16 14.7571 0 
2051 68.87 15.9868 0 
2052 70.29 15.9868 0 
2053 71 14.7571 0 
2365 66.74 17.2166 0 
2370 68.16 17.2166 0 
2371 68.87 18.4463 0 
2372 70.29 18.4463 0 
2373 71 17.2166 0 
1739 73.13 13.5273 0 
1740 74.55 13.5273 0 
1747 77.39 13.5273 0 
2058 72.42 14.7571 0 
2059 73.13 15.9868 0 
2060 74.55 15.9868 0 
2061 75.26 14.7571 0 
2066 76.68 14.7571 0 
2067 77.39 15.9868 0 
2378 72.42 17.2166 0 
2379 73.13 18.4463 0 
2380 74.55 18.4463 0 
2381 75.26 17.2166 0 
2386 76.68 17.2166 0 
2387 77.39 18.4463 0 
1748 78.81 13.5273 0 
1755 81.65 13.5273 0 
1756 83.07 13.5273 0 
2068 78.81 15.9868 0 
2069 79.52 14.7571 0 
2074 80.94 14.7571 0 
2075 81.65 15.9868 0 
2076 83.07 15.9868 0 
2077 83.78 14.7571 0 
2388 78.81 18.4463 0 
2389 79.52 17.2166 0 
2394 80.94 17.2166 0 
2395 81.65 18.4463 0 
2396 83.07 18.4463 0 
2397 83.78 17.2166 0 
1763 85.91 13.5273 0 
1764 87.33 13.5273 0 
1771 90.17 13.5273 0 
2082 85.2 14.7571 0 
2083 85.91 15.9868 0 
2084 87.33 15.9868 0 
2085 88.04 14.7571 0 
2090 89.46 14.7571 0 
2091 90.17 15.9868 0 
2402 85.2 17.2166 0 
2403 85.91 18.4463 0 
2404 87.33 18.4463 0 
2405 88.04 17.2166 0 
2410 89.46 17.2166 0 
2411 90.17 18.4463 0 
1772 91.59 13.5273 0 
1779 94.43 13.5273 0 
1780 95.85 13.5273 0 
2092 91.59 15.9868 0 
2093 92.3 14.7571 0 
2098 93.72 14.7571 0 
2099 94.43 15.9868 0 
2100 95.85 15.9868 0 
2101 96.56 14.7571 0 
2412 91.59 18.4463 0 
2413 92.3 17.2166 0 
2418 93.72 17.2166 0 
2419 94.43 18.4463 0 
2420 95.85 18.4463 0 
2421 96.56 17.2166 0 
1787 98.69 13.5273 0 
1788 100.11 13.5273 0 
2106 97.98 14.7571 0 
2107 98.69 15.9868 0 
2108 100.11 15.9868 0 
2109 100.82 14.7571 0 
2114 102.24 14.7571 0 
2426 97.98 17.2166 0 
2427 98.69 18.4463 0 
2428 100.11 18.4463 0 
2429 100.82 17.2166 0 
2434 102.24 17.2166 0 
1795 102.95 13.5273 0 
1796 104.37 13.5273 0 
1803 107.21 13.5273 0 
1804 108.63 13.5273 0 
2115 102.95 15.9868 0 
2116 104.37 15.9868 0 
2117 105.08 14.7571 0 
2122 106.5 14.7571 0 
2123 107.21 15.9868 0 
2124 108.63 15.9868 0 
2435 102.95 18.4463 0 
2436 104.37 18.4463 0 
2437 105.08 17.2166 0 
2442 106.5 17.2166 0 
2443 107.21 18.4463 0 
2444 108.63 18.4463 0 
1811 111.47 13.5273 0 
1812 112.89 13.5273 0 
2125 109.34 14.7571 0 
2130 110.76 14.7571 0 
2131 111.47 15.9868 0 
2132 112.89 15.9868 0 
2133 113.6 14.7571 0 
2445 109.34 17.2166 0 
2450 110.76 17.2166 0 
2451 111.47 18.4463 0 
2452 112.89 18.4463 0 
2453 113.6 17.2166 0 
1819 115.73 13.5273 0 
1820 117.15 13.5273 0 
1827 119.99 13.5273 0 
2138 115.02 14.7571 0 
2139 115.73 15.9868 0 
2140 117.15 15.9868 0 
2141 117.86 14.7571 0 
2146 119.28 14.7571 0 
2147 119.99 15.9868 0 
2458 115.02 17.2166 0 
2459 115.73 18.4463 0 
2460 117.15 18.4463 0 
2461 117.86 17.2166 0 
2466 119.28 17.2166 0 
2467 119.99 18.4463 0 
1828 121.41 13.5273 0 
1835 124.25 13.5273 0 
1836 125.67 13.5273 0 
2148 121.41 15.9868 0 
2149 122.12 14.7571 0 
2154 123.54 14.7571 0 
2155 124.25 15.9868 0 
2156 125.67 15.9868 0 
2157 126.38 14.7571 0 
2468 121.41 18.4463 0 
2469 122.12 17.2166 0 
2474 123.54 17.2166 0 
2475 124.25 18.4463 0 
2476 125.67 18.4463 0 
2477 126.38 17.2166 0 
1843 128.51 13.5273 0 
1844 129.93 13.5273 0 
1851 132.77 13.5273 0 
2162 127.8 14.7571 0 
2163 128.51 15.9868 0 
2164 129.93 15.9868 0 
2165 130.64 14.7571 0 
2170 132.06 14.7571 0 
2171 132.77 15.9868 0 
2482 127.8 17.2166 0 
2483 128.51 18.4463 0 
2484 129.93 18.4463 0 
2485 130.64 17.2166 0 
2490 132.06 17.2166 0 
2491 132.77 18.4463 0 
1852 134.19 13.5273 0 
1859 137.03 13.5273 0 
1860 138.45 13.5273 0 
2172 134.19 15.9868 0 
2173 134.9 14.7571 0 
2178 136.32 14.7571 0 
2179 137.03 15.9868 0 
2180 138.45 15.9868 0 
2181 139.16 14.7571 0 
2492 134.19 18.4463 0 
2493 134.9 17.2166 0 
2498 136.32 17.2166 0 
2499 137.03 18.4463 0 
2500 138.45 18.4463 0 
2501 139.16 17.2166 0 
1867 141.29 13.5273 0 
1868 142.71 13.5273 0 
2186 140.58 14.7571 0 
2187 141.29 15.9868 0 
2188 142.71 15.9868 0 
2189 143.42 14.7571 0 
2194 144.84 14.7571 0 
2506 140.58 17.2166 0 
2507 141.29 18.4463 0 
2508 142.71 18.4463 0 
2509 143.42 17.2166 0 
2514 144.84 17.2166 0 
1875 145.55 13.5273 0 
1876 146.97 13.5273 0 
1883 149.81 13.5273 0 
1884 151.23 13.5273 0 
2195 145.55 15.9868 0 
2196 146.97 15.9868 0 
2197 147.68 14.7571 0 
2202 149.1 14.7571 0 
2203 149.81 15.9868 0 
2204 151.23 15.9868 0 
2515 145.55 18.4463 0 
2516 146.97 18.4463 0 
2517 147.68 17.2166 0 
2522 149.1 17.2166 0 
2523 149.81 18.4463 0 
2524 151.23 18.4463 0 
1891 154.07 13.5273 0 
1892 155.49 13.5273 0 
2205 151.94 14.7571 0 
2210 153.36 14.7571 0 
2211 154.07 15.9868 0 
2212 155.49 15.9868 0 
2213 156.2 14.7571 0 
2525 151.94 17.2166 0 
2530 153.36 17.2166 0 
2531 154.07 18.4463 0 
2532 155.49 18.4463 0 
2533 156.2 17.2166 0 
1899 158.33 13.5273 0 
1900 159.75 13.5273 0 
1907 162.59 13.5273 0 
2218 157.62 14.7571 0 
2219 158.33 15.9868 0 
2220 159.75 15.9868 0 
2221 160.46 14.7571 0 
2226 161.88 14.7571 0 
2227 162.59 15.9868 0 
2538 157.62 17.2166 0 
2539 158.33 18.4463 0 
2540 159.75 18.4463 0 
2541 160.46 17.2166 0 
2546 161.88 17.2166 0 
2547 162.59 18.4463 0 
1908 164.01 13.5273 0 
1915 166.85 13.5273 0 
1916 168.27 13.5273 0 
2228 164.01 15.9868 0 
2229 164.72 14.7571 0 
2234 166.14 14.7571 0 
2235 166.85 15.9868 0 
2236 168.27 15.9868 0 
2237 168.98 14.7571 0 
2548 164.01 18.4463 0 
2549 164.72 17.2166 0 
2554 166.14 17.2166 0 
2555 166.85 18.4463 0 
2556 168.27 18.4463 0 
2557 168.98 17.2166 0 
2562 0 19.6761 0 
2563 0.71 20.9059 0 
2564 2.13 20.9059 0 
2565 2.84 19.6761 0 
2570 4.26 19.6761 0 
2571 4.97 20.9059 0 
2882 0 22.1356 0 
2883 0.71 23.3654 0 
2884 2.13 23.3654 0 
2885 2.84 22.1356 0 
2890 4.26 22.1356 0 
2891 4.97 23.3654 0 
3202 0 24.5951 0 
3205 2.84 24.5951 0 
3210 4.26 24.5951 0 
2572 6.39 20.9059 0 
2573 7.1 19.6761 0 
2578 8.52 19.6761 0 
2579 9.23 20.9059 0 
2580 10.65 20.9059 0 
2581 11.36 19.6761 0 
2892 6.39 23.3654 0 
2893 7.1 22.1356 0 
2898 8.52 22.1356 0 
2899 9.23 23.3654 0 
2900 10.65 23.3654 0 
2901 11.36 22.1356 0 
3213 7.1 24.5951 0 
3218 8.52 24.5951 0 
3221 11.36 24.5951 0 
2586 12.78 19.6761 0 
2587 13.49 20.9059 0 
2588 14.91 20.9059 0 
2589 15.62 19.6761 0 
2594 17.04 19.6761 0 
2906 12.78 22.1356 0 
2907 13.49 23.3654 0 
2908 14.91 23.3654 0 
2909 15.62 22.1356 0 
2914 17.04 22.1356 0 
3226 12.78 24.5951 0 
3229 15.62 24.5951 0 
3234 17.04 24.5951 0 
2595 17.75 20.9059 0 
2596 19.17 20.9059 0 
2597 19.88 19.6761 0 
2602 21.3 19.6761 0 
2603 22.01 20.9059 0 
2604 23.43 20.9059 0 
2915 17.75 23.3654 0 
2916 19.17 23.3654 0 
2917 19.88 22.1356 0 
2922 21.3 22.1356 0 
2923 22.01 23.3654 0 
2924 23.43 23.3654 0 
3237 19.88 24.5951 0 
3242 21.3 24.5951 0 
2605 24.14 19.6761 0 
2610 25.56 19.6761 0 
2611 26.27 20.9059 0 
2612 27.69 20.9059 0 
2613 28.4 19.6761 0 
2925 24.14 22.1356 0 
2930 25.56 22.1356 0 
2931 26.27 23.3654 0 
2932 27.69 23.3654 0 
2933 28.4 22.1356 0 
3245 24.14 24.5951 0 
3250 25.56 24.5951 0 
3253 28.4 24.5951 0 
2618 29.82 19.6761 0 
2619 30.53 20.9059 0 
2620 31.95 20.9059 0 
2621 32.66 19.6761 0 
2626 34.08 19.6761 0 
2627 34.79 20.9059 0 
2938 29.82 22.1356 0 
2939 30.53 23.3654 0 
2940 31.95 23.3654 0 
2941 32.66 22.1356 0 
2946 34.08 22.1356 0 
2947 34.79 23.3654 0 
3258 29.82 24.5951 0 
3261 32.66 24.5951 0 
3266 34.08 24.5951 0 
2628 36.21 20.9059 0 
2629 36.92 19.6761 0 
2634 38.34 19.6761 0 
2635 39.05 20.9059 0 
2636 40.47 20.9059 0 
2637 41.18 19.6761 0 
2948 36.21 23.3654 0 
2949 36.92 22.1356 0 
2954 38.34 22.1356 0 
2955 39.05 23.3654 0 
2956 40.47 23.3654 0 
2957 41.18 22.1356 0 
3269 36.92 24.5951 0 
3274 38.34 24.5951 0 
3277 41.18 24.5951 0 
2642 42.6 19.6761 0 
2643 43.31 20.9059 0 
2644 44.73 20.9059 0 
2645 45.44 19.6761 0 
2650 46.86 19.6761 0 
2651 47.57 20.9059 0 
2962 42.6 22.1356 0 
2963 43.31 23.3654 0 
2964 44.73 23.3654 0 